# vtk DataFile Version 4.2
vtk output
ASCII
DATASET RECTILINEAR_GRID
DIMENSIONS 50 50 1
X_COORDINATES 50 float
-10 -9.59184 -9.18367 -8.77551 -8.36735 -7.95918 -7.55102 -7.14286 -6.73469 
-6.32653 -5.91837 -5.5102 -5.10204 -4.69388 -4.28571 -3.87755 -3.46939 -3.06122 
-2.65306 -2.2449 -1.83673 -1.42857 -1.02041 -0.612245 -0.204082 0.204082 0.612245 
1.02041 1.42857 1.83673 2.2449 2.65306 3.06122 3.46939 3.87755 4.28571 
4.69388 5.10204 5.5102 5.91837 6.32653 6.73469 7.14286 7.55102 7.95918 
8.36735 8.77551 9.18367 9.59184 10 
Y_COORDINATES 50 float
-10 -9.59184 -9.18367 -8.77551 -8.36735 -7.95918 -7.55102 -7.14286 -6.73469 
-6.32653 -5.91837 -5.5102 -5.10204 -4.69388 -4.28571 -3.87755 -3.46939 -3.06122 
-2.65306 -2.2449 -1.83673 -1.42857 -1.02041 -0.612245 -0.204082 0.204082 0.612245 
1.02041 1.42857 1.83673 2.2449 2.65306 3.06122 3.46939 3.87755 4.28571 
4.69388 5.10204 5.5102 5.91837 6.32653 6.73469 7.14286 7.55102 7.95918 
8.36735 8.77551 9.18367 9.59184 10 
Z_COORDINATES 1 float
0 
POINT_DATA 2500
VECTORS grad float
2.95129 10.8089 0 2.29166 11.2549 0 0.907707 11.3436 0 
-0.527221 11.0406 0 -1.77884 10.3621 0 -2.35994 9.3711 0 
-1.30558 8.2164 0 2.86365 7.31663 0 11.2391 7.72599 0 
22.5139 11.1975 0 32.2567 19.1314 0 35.4099 31.2662 0 
29.4182 44.696 0 16.031 52.6532 0 1.2292 49.4882 0 
-8.93952 38.8845 0 -12.8317 28.1189 0 -12.3672 20.304 0 
-9.83835 15.3737 0 -6.5985 12.5496 0 -3.34009 11.262 0 
-0.777853 11.2655 0 -0.210017 12.3929 0 -2.79496 13.758 0 
-7.19387 13.5484 0 -10.1392 11.728 0 -10.3705 9.96232 0 
-9.08468 8.90819 0 -7.53345 8.41259 0 -6.22683 8.22803 0 
-5.25751 8.18547 0 -4.58074 8.18636 0 -4.1243 8.17792 0 
-3.82175 8.1362 0 -3.62058 8.05513 0 -3.48296 7.93893 0 
-3.38408 7.79703 0 -3.30983 7.63987 0 -3.25421 7.47656 0 
-3.21651 7.31299 0 -3.19864 7.15147 0 -3.2028 6.991 0 
-3.22992 6.82867 0 -3.27879 6.66076 0 -3.34615 6.4841 0 
-3.42723 6.29669 0 -3.51642 6.09788 0 -3.60801 5.88819 0 
-3.69678 5.66903 0 -3.73983 5.4424 0 3.39723 11.773 0 
2.559 12.3875 0 0.800556 12.6049 0 -1.01798 12.41 0 
-2.61357 11.8771 0 -3.43279 11.1558 0 -2.33282 10.4744 0 
2.61844 10.2257 0 13.1796 11.1644 0 28.2166 14.5054 0 
42.291 21.5335 0 48.1922 32.9005 0 40.1117 46.8491 0 
18.4271 55.5606 0 -5.65513 50.8496 0 -19.6241 37.9835 0 
-22.1219 26.2416 0 -18.7398 18.3647 0 -13.7156 13.6088 0 
-8.65435 10.8744 0 -3.98216 9.44752 0 -0.212383 8.96869 0 
1.03621 9.22695 0 -2.2172 9.7406 0 -8.20886 9.63948 0 
-11.9323 8.88094 0 -11.7803 8.20654 0 -9.85955 7.89944 0 
-7.87354 7.86756 0 -6.34039 7.973 0 -5.27834 8.11644 0 
-4.58452 8.23736 0 -4.14938 8.30445 0 -3.88315 8.30719 0 
-3.71921 8.24896 0 -3.61201 8.14107 0 -3.53361 7.99837 0 
-3.47006 7.83553 0 -3.41765 7.66456 0 -3.37905 7.4931 0 
-3.35963 7.32399 0 -3.36421 7.15605 0 -3.39504 6.98573 0 
-3.45107 6.80884 0 -3.52818 6.62198 0 -3.62034 6.42327 0 
-3.72067 6.21242 0 -3.82243 5.9904 0 -3.91967 5.75906 0 
-3.96646 5.52067 0 4.18025 13.8739 0 3.1235 14.8796 0 
0.930202 15.3585 0 -1.25496 15.3239 0 -3.03303 14.971 0 
-3.76264 14.6279 0 -2.23575 14.6723 0 3.55366 15.4136 0 
15.5189 16.939 0 32.883 19.2176 0 50.6517 22.8761 0 
60.7254 29.6403 0 52.0783 39.9531 0 20.0315 46.9596 0 
-16.348 41.2014 0 -33.5474 28.6882 0 -32.4504 18.7085 0 
-25.0001 12.6654 0 -17.3287 9.18128 0 -10.7598 7.06298 0 
-5.24578 5.58043 0 -0.99842 4.27585 0 0.561893 2.92091 0 
-2.38244 1.84737 0 -8.05352 1.97947 0 -11.5722 3.27121 0 
-11.352 4.72189 0 -9.42366 5.88868 0 -7.4599 6.7843 0 
-5.97795 7.47727 0 -4.99314 8.00121 0 -4.39274 8.36885 0 
-4.05447 8.59093 0 -3.87724 8.6841 0 -3.7867 8.67103 0 
-3.73355 8.57778 0 -3.68962 8.43068 0 -3.64363 8.25351 0 
-3.59664 8.06469 0 -3.55709 7.87553 0 -3.53569 7.6898 0 
-3.54106 7.50546 0 -3.57713 7.31729 0 -3.64254 7.11986 0 
-3.73172 6.90942 0 -3.83679 6.68463 0 -3.94929 6.44629 0 
-4.06137 6.19658 0 -4.1665 5.93835 0 -4.21661 5.67449 0 
5.40866 16.2764 0 4.04357 17.8047 0 1.24478 18.5442 0 
-1.4055 18.5007 0 -3.30957 17.9926 0 -3.73147 17.5049 0 
-1.54713 17.4898 0 4.88517 18.102 0 16.9836 18.8281 0 
34.1538 18.5385 0 52.7136 16.6655 0 65.2691 14.0746 0 
57.431 11.9535 0 19.6754 10.3207 0 -23.9265 8.40303 0 
-42.117 6.4977 0 -38.1447 5.13047 0 -28.2671 4.21594 0 
-19.3179 3.49835 0 -12.2552 2.74523 0 -6.7693 1.72704 0 
-2.8719 0.21168 0 -1.39226 -1.8141 0 -3.15865 -3.47708 0 
-6.78503 -3.10524 0 -9.18987 -0.7173 0 -9.16287 2.01487 0 
-7.79715 4.21914 0 -6.28495 5.85926 0 -5.12347 7.07278 0 
-4.38675 7.95742 0 -3.9948 8.56894 0 -3.83413 8.94789 0 
-3.80304 9.13336 0 -3.82553 9.16545 0 -3.85236 9.08421 0 
-3.85789 8.92803 0 -3.83605 8.73107 0 -3.79564 8.51969 0 
-3.75394 8.30945 0 -3.7297 8.10462 0 -3.73672 7.90098 0 
-3.78064 7.69057 0 -3.85893 7.46626 0 -3.96341 7.22431 0 
-4.08348 6.96488 0 -4.20872 6.69084 0 -4.33037 6.40632 0 
-4.44176 6.11546 0 -4.49418 5.82187 0 7.23702 18.7712 0 
5.39135 21.0148 0 1.62621 22.0242 0 -1.80656 21.7468 0 
-4.02889 20.6471 0 -4.26545 19.3258 0 -1.63859 18.1901 0 
4.89194 17.2381 0 15.9553 15.7576 0 30.7204 12.2893 0 
46.1878 5.39075 0 56.0134 -5.64333 0 48.3245 -19.772 0 
16.4811 -29.8587 0 -20.171 -26.9646 0 -36.82 -17.0321 0 
-34.7322 -9.02689 0 -26.6322 -4.42345 0 -18.7994 -2.12727 0 
-12.5311 -1.25364 0 -7.77934 -1.38537 0 -4.53956 -2.34107 0 
-3.12687 -3.80691 0 -3.67357 -4.86706 0 -5.29374 -4.28799 0 
-6.45207 -2.03645 0 -6.41551 0.74175 0 -5.57927 3.23428 0 
-4.60626 5.24694 0 -3.8798 6.81388 0 -3.49697 7.99136 0 
-3.40226 8.8253 0 -3.49005 9.36107 0 -3.65968 9.64726 0 
-3.83586 9.73336 0 -3.97097 9.66893 0 -4.04276 9.50362 0 
-4.05197 9.28406 0 -4.01825 9.04722 0 -3.97215 8.81418 0 
-3.94416 8.58886 0 -3.95511 8.36298 0 -4.01185 8.12415 0 
-4.10879 7.86327 0 -4.23309 7.57772 0 -4.37027 7.27088 0 
-4.50785 6.94942 0 -4.63675 6.6204 0 -4.75095 6.28964 0 
-4.80379 5.96116 0 9.89587 20.7275 0 7.29659 23.9237 0 
1.97679 25.2797 0 -2.78263 24.6526 0 -5.73056 22.7591 0 
-6.18847 20.2724 0 -3.63481 17.3987 0 2.45268 14.0712 0 
12.0348 9.93892 0 23.7869 4.04694 0 34.781 -5.02511 0 
40.1063 -18.3284 0 33.2157 -34.3398 0 12.4828 -44.9027 0 
-11.0999 -41.2224 0 -24.1793 -28.9334 0 -25.5361 -17.7941 0 
-21.3675 -10.5451 0 -16.1481 -6.40149 0 -11.5133 -4.28864 0 
-7.85673 -3.5118 0 -5.29345 -3.6271 0 -3.91825 -4.16483 0 
-3.63972 -4.42287 0 -3.95442 -3.6999 0 -4.16013 -1.91342 0 
-3.89214 0.405937 0 -3.29195 2.7366 0 -2.70534 4.82727 0 
-2.37905 6.58998 0 -2.37534 7.99504 0 -2.62509 9.04356 0 
-3.01217 9.76142 0 -3.43075 10.187 0 -3.80386 10.3632 0 
-4.0821 10.3397 0 -4.24275 10.1765 0 -4.29245 9.93772 0 
-4.26552 9.67669 0 -4.2123 9.42252 0 -4.1809 9.17747 0 
-4.20143 8.92597 0 -4.28035 8.64911 0 -4.40537 8.33606 0 
-4.5558 7.98783 0 -4.71178 7.61428 0 -4.8592 7.22849 0 
-4.99015 6.8418 0 -5.101 6.46176 0 -5.15113 6.09214 0 
13.6294 20.6678 0 9.94356 24.8817 0 2.35514 26.7555 0 
-4.32717 26.0917 0 -8.40909 23.9912 0 -9.62585 20.984 0 
-7.83979 16.6486 0 -2.56786 10.8386 0 5.93104 4.22524 0 
15.7564 -2.88516 0 23.8125 -11.3544 0 26.6987 -22.0037 0 
21.7501 -33.3286 0 9.59847 -40.1178 0 -4.20163 -37.8397 0 
-13.3916 -29.2452 0 -16.3439 -20.1286 0 -15.2396 -13.2433 0 
-12.543 -8.75964 0 -9.64138 -6.10632 0 -7.1178 -4.72574 0 
-5.19258 -4.16935 0 -3.92264 -4.00137 0 -3.20865 -3.73916 0 
-2.78429 -2.97425 0 -2.34622 -1.58929 0 -1.76549 0.239086 0 
-1.15793 2.25378 0 -0.752884 4.25555 0 -0.712031 6.10601 0 
-1.0434 7.70997 0 -1.63588 9.01622 0 -2.34657 10.0071 0 
-3.05789 10.6775 0 -3.68324 11.0326 0 -4.15772 11.1075 0 
-4.4447 10.9759 0 -4.55174 10.7315 0 -4.53345 10.4551 0 
-4.47138 10.1878 0 -4.44071 9.92726 0 -4.48347 9.64561 0 
-4.60176 9.31476 0 -4.77007 8.92401 0 -4.95487 8.483 0 
-5.12961 8.01371 0 -5.28034 7.53945 0 -5.40348 7.07732 0 
-5.50061 6.63596 0 -5.54303 6.21746 0 18.3236 16.1508 0 
13.3842 20.7017 0 3.1868 23.2924 0 -5.5469 23.8276 0 
-10.8383 23.5913 0 -13.531 22.3402 0 -13.7802 18.0476 0 
-9.9707 10.0215 0 -1.68895 0.870281 0 8.20732 -6.85561 0 
15.6624 -13.5712 0 18.1321 -20.5022 0 15.1016 -27.0514 0 
7.97172 -30.7128 0 -0.227308 -29.554 0 -6.46819 -24.6059 0 
-9.53425 -18.5641 0 -9.99845 -13.3071 0 -9.01112 -9.42052 0 
-7.4794 -6.81602 0 -5.91976 -5.21036 0 -4.56908 -4.29558 0 
-3.48806 -3.75824 0 -2.61261 -3.28389 0 -1.80455 -2.61257 0 
-0.94679 -1.61211 0 -0.0490725 -0.282192 0 0.724506 1.30931 0 
1.14689 3.07461 0 1.07537 4.91532 0 0.534874 6.72997 0 
-0.327909 8.42292 0 -1.35094 9.89143 0 -2.40532 11.0189 0 
-3.37378 11.7177 0 -4.1388 11.9907 0 -4.61876 11.9408 0 
-4.81322 11.7181 0 -4.80927 11.4483 0 -4.74015 11.1878 0 
-4.72307 10.9227 0 -4.81393 10.6047 0 -5.00195 10.1939 0 
-5.23713 9.68481 0 -5.46609 9.10497 0 -5.65532 8.49752 0 
-5.7956 7.9014 0 -5.89364 7.34038 0 -5.96085 6.82238 0 
-5.98813 6.34496 0 22.7312 5.32117 0 17.0852 8.42108 0 
5.48109 11.7444 0 -4.02832 15.5449 0 -9.89646 20.4637 0 
-15.1695 24.8051 0 -20.1585 23.6231 0 -19.7452 14.1989 0 
-10.9461 2.05833 0 1.3149 -6.63024 0 10.166 -12.1001 0 
13.2185 -16.5361 0 11.5395 -20.3065 0 7.09581 -22.3803 0 
1.90532 -21.9144 0 -2.40171 -19.2542 0 -5.04507 -15.5767 0 
-6.09605 -11.9593 0 -6.05192 -8.95984 0 -5.43122 -6.71914 0 
-4.59736 -5.16981 0 -3.74046 -4.16394 0 -2.91094 -3.5243 0 
-2.06298 -3.06832 0 -1.11251 -2.63436 0 -0.0158429 -2.10284 0 
1.15593 -1.39055 0 2.19887 -0.42457 0 2.85313 0.870299 0 
2.94333 2.55043 0 2.46421 4.60838 0 1.52559 6.91885 0 
0.249362 9.20944 0 -1.23159 11.1264 0 -2.71135 12.4033 0 
-3.93466 13.0017 0 -4.71736 13.0972 0 -5.0442 12.9416 0 
-5.06378 12.7257 0 -4.99701 12.5162 0 -5.02379 12.2724 0 
-5.21223 11.9128 0 -5.52164 11.3842 0 -5.85904 10.6964 0 
-6.14215 9.91138 0 -6.33318 9.10717 0 -6.43748 8.34516 0 
-6.4825 7.65545 0 -6.49603 7.04113 0 -6.49786 6.49096 0 
24.5234 -10.0393 0 19.8075 -10.1295 0 10.3106 -6.52019 0 
3.17242 1.43044 0 -1.57807 13.0011 0 -10.3717 25.4184 0 
-24.3864 30.8266 0 -31.5354 22.582 0 -22.5181 8.55555 0 
-5.95107 -1.45609 0 5.75662 -7.18816 0 9.92568 -11.1057 0 
9.25739 -14.0429 0 6.36374 -15.727 0 2.89878 -15.8493 0 
-0.130451 -14.5731 0 -2.23938 -12.4557 0 -3.38159 -10.1027 0 
-3.77097 -7.93226 0 -3.68938 -6.14666 0 -3.36457 -4.79988 0 
-2.92356 -3.86736 0 -2.39244 -3.28866 0 -1.72268 -2.9906 0 
-0.839067 -2.8999 0 0.297022 -2.94178 0 1.6292 -3.01445 0 
2.98536 -2.94143 0 4.12189 -2.43514 0 4.81345 -1.14221 0 
4.9033 1.17176 0 4.27315 4.37589 0 2.85662 7.89906 0 
0.788575 10.9739 0 -1.49845 13.0558 0 -3.44498 14.0849 0 
-4.67889 14.3888 0 -5.18467 14.3775 0 -5.2347 14.3128 0 
-5.19346 14.2476 0 -5.32647 14.0851 0 -5.70214 13.6913 0 
-6.21827 12.9997 0 -6.70995 12.0539 0 -7.05535 10.9764 0 
-7.22154 9.90105 0 -7.24732 8.91933 0 -7.19767 8.06465 0 
-7.12534 7.32819 0 -7.08847 6.68431 0 22.5507 -24.6846 0 
20.6043 -28.1767 0 17.0411 -25.1851 0 15.493 -15.2637 0 
14.0915 -0.828838 0 2.65598 15.1163 0 -22.9949 25.8061 0 
-42.0162 23.8122 0 -34.9842 14.4445 0 -14.4288 5.69597 0 
0.516343 -0.712603 0 6.36376 -5.32891 0 6.91822 -8.5624 0 
5.28944 -10.5005 0 3.05919 -11.1849 0 0.991845 -10.8046 0 
-0.57463 -9.69911 0 -1.57256 -8.24191 0 -2.09592 -6.73577 0 
-2.29884 -5.3777 0 -2.31806 -4.27685 0 -2.22924 -3.48749 0 
-2.03418 -3.03589 0 -1.67422 -2.93674 0 -1.06369 -3.19933 0 
-0.130391 -3.81608 0 1.15628 -4.71652 0 2.77818 -5.67082 0 
4.65235 -6.17686 0 6.55022 -5.48802 0 7.9823 -2.99122 0 
8.25289 1.21573 0 6.84739 6.16574 0 3.9251 10.5502 0 
0.399613 13.4955 0 -2.60159 14.9767 0 -4.42471 15.5587 0 
-5.12024 15.836 0 -5.19366 16.1097 0 -5.22467 16.3692 0 
-5.58015 16.4164 0 -6.29764 16.0362 0 -7.15899 15.1473 0 
-7.88237 13.856 0 -8.29504 12.3867 0 -8.39023 10.9581 0 
-8.27388 9.69838 0 -8.07365 8.63644 0 -7.87637 7.74181 0 
-7.78562 6.96986 0 17.5391 -34.1726 0 19.307 -40.3849 0 
23.2237 -38.7744 0 27.5287 -30.0101 0 28.802 -18.9572 0 
16.2632 -8.94578 0 -15.6905 -0.200772 0 -42.897 7.28774 0 
-40.6343 10.62 0 -21.1082 8.44576 0 -5.26826 3.65387 0 
2.07588 -0.95585 0 4.08581 -4.41129 0 3.74129 -6.61998 0 
2.59463 -7.71818 0 1.3553 -7.91606 0 0.323349 -7.46675 0 
-0.418258 -6.62803 0 -0.90676 -5.62328 0 -1.23045 -4.62421 0 
-1.47436 -3.75645 0 -1.6826 -3.11525 0 -1.84169 -2.78009 0 
-1.88612 -2.8239 0 -1.7184 -3.31524 0 -1.22016 -4.30457 0 
-0.225544 -5.76927 0 1.52501 -7.48205 0 4.30469 -8.82164 0 
7.99909 -8.74354 0 11.607 -6.29358 0 13.4301 -1.49918 0 
12.191 4.38359 0 8.1183 9.64373 0 2.92813 13.1837 0 
-1.3817 15.0635 0 -3.81966 16.0668 0 -4.63372 16.8967 0 
-4.70147 17.8163 0 -4.88673 18.6959 0 -5.65951 19.1873 0 
-6.97126 18.9486 0 -8.39842 17.8726 0 -9.47055 16.169 0 
-9.9533 14.2246 0 -9.90986 12.3766 0 -9.56895 10.7897 0 
-9.15424 9.47311 0 -8.79192 8.3663 0 -8.63239 7.40786 0 
10.1262 -35.7866 0 16.0026 -43.799 0 27.4158 -43.5925 0 
35.3101 -37.1623 0 35.1559 -31.6458 0 21.4124 -29.956 0 
-6.76137 -26.2813 0 -31.1955 -13.7048 0 -33.8262 -0.30241 0 
-21.3949 5.02229 0 -8.88527 4.00106 0 -1.70139 0.930381 0 
1.25409 -1.97498 0 1.98255 -4.07382 0 1.76311 -5.31788 0 
1.24327 -5.83342 0 0.713396 -5.79407 0 0.270909 -5.378 0 
-0.0920951 -4.74724 0 -0.432009 -4.04018 0 -0.809109 -3.37468 0 
-1.25288 -2.85567 0 -1.74283 -2.58102 0 -2.20937 -2.64315 0 
-2.54436 -3.1261 0 -2.58442 -4.09206 0 -2.02121 -5.53371 0 
-0.274187 -7.25678 0 3.39086 -8.6993 0 9.07827 -8.87983 0 
15.2267 -6.86108 0 18.9301 -2.61002 0 17.9903 2.76042 0 
12.7252 7.71283 0 5.81938 11.2687 0 0.281513 13.5328 0 
-2.59147 15.2458 0 -3.37069 16.9997 0 -3.39452 18.9372 0 
-3.85371 20.8026 0 -5.32738 22.0713 0 -7.61236 22.2067 0 
-9.93861 21.0411 0 -11.5304 18.9388 0 -12.0874 16.5192 0 
-11.8251 14.2573 0 -11.1774 12.3303 0 -10.497 10.7081 0 
-9.94162 9.30437 0 -9.7025 8.0627 0 1.51449 -26.3233 0 
11.5012 -33.2135 0 29.8603 -34.1769 0 39.4753 -31.3174 0 
36.0083 -30.5552 0 21.6277 -32.7741 0 0.560737 -31.615 0 
-16.9182 -21.1549 0 -21.9073 -7.77846 0 -16.8047 0.0602722 0 
-9.36016 1.91048 0 -3.90016 0.793672 0 -0.918394 -1.06337 0 
0.398391 -2.70041 0 0.835037 -3.83769 0 0.879109 -4.46432 0 
0.77877 -4.66099 0 0.628573 -4.53369 0 0.431061 -4.18905 0 
0.142097 -3.72663 0 -0.289851 -3.23925 0 -0.888938 -2.8155 0 
-1.62917 -2.53906 0 -2.4312 -2.48299 0 -3.16731 -2.70067 0 
-3.62777 -3.21206 0 -3.39026 -3.97557 0 -1.64058 -4.83533 0 
2.68164 -5.46335 0 9.83732 -5.38227 0 17.8769 -4.18029 0 
23.0516 -1.82724 0 22.5139 1.25554 0 16.6266 4.46616 0 
8.7481 7.40273 0 2.5954 10.0841 0 -0.352812 12.784 0 
-0.942361 15.718 0 -0.898468 18.8842 0 -1.75259 21.9748 0 
-4.25543 24.3195 0 -8.00147 25.1238 0 -11.6664 24.1054 0 
-13.9925 21.8204 0 -14.6348 19.1495 0 -14.0987 16.6544 0 
-13.1181 14.4576 0 -12.1802 12.4767 0 -11.4373 10.645 0 
-11.1157 8.97263 0 -3.65431 -6.82362 0 8.14897 -8.37508 0 
29.3119 -10.5338 0 38.9318 -13.7627 0 33.6991 -18.1607 0 
20.3526 -22.4063 0 4.85783 -22.8819 0 -7.35891 -17.2423 0 
-12.611 -8.89879 0 -11.706 -2.79784 0 -8.15187 -0.295591 0 
-4.67524 -0.202632 0 -2.24 -1.11242 0 -0.791776 -2.19303 0 
-0.000792742 -3.08883 0 0.419974 -3.69409 0 0.644022 -4.01116 0 
0.742847 -4.08366 0 0.71497 -3.96825 0 0.517792 -3.72339 0 
0.102013 -3.40555 0 -0.552684 -3.06742 0 -1.41031 -2.75357 0 
-2.37098 -2.49165 0 -3.27343 -2.28097 0 -3.85932 -2.08203 0 
-3.64448 -1.81431 0 -1.76197 -1.38549 0 2.84392 -0.789273 0 
10.3613 -0.223374 0 18.7817 0.0159204 0 24.3659 -0.0723779 0 
24.2837 -0.0303149 0 18.8724 0.764489 0 11.4373 2.67875 0 
5.66276 5.58928 0 3.04242 9.11944 0 2.72955 13.0061 0 
2.86227 17.1224 0 1.58154 21.213 0 -2.17838 24.5909 0 
-7.82644 26.2695 0 -13.2421 25.8428 0 -16.4862 24.0017 0 
-17.2534 21.7375 0 -16.5171 19.4985 0 -15.3551 17.2349 0 
-14.3096 14.8397 0 -13.4457 12.3923 0 -13.0473 10.0937 0 
-1.58843 12.1413 0 7.79103 15.854 0 24.4727 13.1105 0 
31.8485 4.96494 0 27.3647 -3.61665 0 16.9065 -9.8865 0 
5.72476 -12.3828 0 -2.93512 -10.823 0 -7.46284 -7.06093 0 
-8.20151 -3.63706 0 -6.76496 -1.76827 0 -4.71699 -1.3019 0 
-2.90879 -1.62906 0 -1.57802 -2.24935 0 -0.666028 -2.88115 0 
-0.0432193 -3.39919 0 0.389206 -3.76277 0 0.671482 -3.97162 0 
0.791329 -4.04229 0 0.704795 -3.99495 0 0.366122 -3.84532 0 
-0.236952 -3.59969 0 -1.0534 -3.25104 0 -1.9586 -2.77482 0 
-2.75769 -2.12471 0 -3.16111 -1.23329 0 -2.69372 -0.034982 0 
-0.615543 1.44838 0 3.84375 2.93392 0 10.6425 3.76408 0 
18.0279 3.24159 0 23.0054 1.38674 0 23.3508 -0.791132 0 
19.3357 -1.89826 0 13.5729 -1.06388 0 9.03609 1.54743 0 
7.06401 5.17187 0 7.0606 9.20341 0 7.30845 13.3972 0 
5.71591 17.5932 0 0.801086 21.3216 0 -6.74961 23.7811 0 
-13.9342 24.6087 0 -18.0978 24.3594 0 -19.138 23.6696 0 
-18.6013 22.5159 0 -17.7769 20.5218 0 -17.0228 17.6429 0 
-16.1834 14.3468 0 -15.713 11.2214 0 3.77105 20.8695 0 
9.11819 25.7994 0 18.4228 23.5694 0 22.2046 15.2213 0 
18.8477 5.93519 0 11.5864 -1.15702 0 3.92129 -5.09717 0 
-2.03701 -6.08036 0 -5.42502 -5.19523 0 -6.41333 -3.80327 0 
-5.81671 -2.78023 0 -4.53603 -2.3515 0 -3.18745 -2.38442 0 
-2.04386 -2.67497 0 -1.15063 -3.06709 0 -0.46165 -3.46569 0 
0.0715852 -3.8197 0 0.463325 -4.10522 0 0.691646 -4.31138 0 
0.714767 -4.42742 0 0.497276 -4.4313 0 0.0415921 -4.28317 0 
-0.585449 -3.92583 0 -1.24466 -3.29229 0 -1.73189 -2.3173 0 
-1.76959 -0.95346 0 -0.962812 0.791776 0 1.20693 2.76378 0 
5.15962 4.51737 0 10.669 5.292 0 16.4044 4.40636 0 
20.3332 1.95081 0 20.9987 -0.993907 0 18.5996 -2.95554 0 
14.883 -2.98998 0 11.8985 -1.19178 0 10.6984 1.67484 0 
10.9549 4.8946 0 11.2521 8.11194 0 9.50588 11.2379 0 
4.00954 14.2477 0 -4.53926 17.075 0 -12.6637 19.7078 0 
-17.4253 22.1955 0 -19.0969 24.2757 0 -19.6649 25.0951 0 
-20.2281 23.7293 0 -20.4846 20.2786 0 -19.8672 15.9423 0 
-19.2981 11.9144 0 8.27134 19.9918 0 10.4909 23.6557 0 
13.8946 22.2456 0 14.2143 16.205 0 10.9864 8.69724 0 
5.87417 2.29844 0 0.80142 -1.93864 0 -3.03317 -4.01769 0 
-5.18574 -4.53719 0 -5.78651 -4.27088 0 -5.31319 -3.81733 0 
-4.32117 -3.47899 0 -3.23226 -3.33874 0 -2.2607 -3.37783 0 
-1.45675 -3.54714 0 -0.795829 -3.79558 0 -0.250316 -4.0805 0 
0.179803 -4.37016 0 0.469124 -4.63831 0 0.584877 -4.85271 0 
0.510377 -4.96254 0 0.268519 -4.89219 0 -0.0625312 -4.54797 0 
-0.350076 -3.83916 0 -0.41886 -2.70631 0 -0.0520289 -1.14882 0 
1.02352 0.7406 0 3.11005 2.71548 0 6.37197 4.30961 0 
10.5315 4.89135 0 14.6867 3.98936 0 17.6051 1.74746 0 
18.4444 -0.964916 0 17.3396 -2.99747 0 15.3367 -3.59387 0 
13.7009 -2.76854 0 13.1504 -1.09698 0 13.4977 0.774574 0 
13.6518 2.44981 0 11.8517 3.91074 0 6.63818 5.61122 0 
-1.28957 8.34411 0 -8.81375 12.54 0 -13.5299 17.7168 0 
-16.2384 22.7196 0 -19.1476 25.8213 0 -22.5935 25.2801 0 
-24.8098 21.3031 0 -24.5475 16.0932 0 -23.7688 11.4919 0 
11.0988 14.267 0 11.372 16.2857 0 10.9722 15.2585 0 
8.65623 11.2946 0 4.94119 6.0134 0 0.950533 1.13457 0 
-2.39484 -2.40643 0 -4.63557 -4.45324 0 -5.6782 -5.30443 0 
-5.69347 -5.40568 0 -5.02482 -5.14868 0 -4.05744 -4.79519 0 
-3.08629 -4.48997 0 -2.25226 -4.29919 0 -1.56838 -4.23908 0 
-0.995016 -4.29574 0 -0.502992 -4.44211 0 -0.0944853 -4.6485 0 
0.209093 -4.88243 0 0.390542 -5.09942 0 0.457799 -5.23201 0 
0.456166 -5.18596 0 0.467575 -4.85249 0 0.597 -4.13812 0 
0.958455 -3.0021 0 1.67732 -1.48671 0 2.90149 0.261396 0 
4.77594 1.97119 0 7.33548 3.24476 0 10.3487 3.63976 0 
13.2605 2.88739 0 15.3789 1.1379 0 16.2538 -1.00902 0 
15.9707 -2.78883 0 15.112 -3.6872 0 14.3954 -3.68071 0 
14.2415 -3.1456 0 14.5017 -2.56972 0 14.3882 -2.2765 0 
12.6673 -2.18115 0 8.44291 -1.56931 0 2.38953 0.70461 0 
-3.29107 5.21488 0 -7.24574 11.2878 0 -10.9924 17.5061 0 
-17.1043 21.847 0 -24.7463 22.0438 0 -29.6716 18.2983 0 
-29.6784 13.3808 0 -28.5007 9.27476 0 12.3088 6.74443 0 
11.4824 7.14023 0 8.90347 5.92837 0 4.96919 3.23337 0 
0.826377 -0.117439 0 -2.54565 -3.18031 0 -4.7864 -5.39916 0 
-5.93117 -6.66872 0 -6.13818 -7.15293 0 -5.63077 -7.10137 0 
-4.7027 -6.7439 0 -3.66246 -6.25582 0 -2.73626 -5.76067 0 
-2.0098 -5.33938 0 -1.4533 -5.03482 0 -0.998861 -4.85799 0 
-0.603074 -4.79892 0 -0.260514 -4.83561 0 0.0182033 -4.93545 0 
0.235295 -5.04947 0 0.423837 -5.10587 0 0.648034 -5.0105 0 
0.985307 -4.66223 0 1.50032 -3.98322 0 2.23256 -2.95439 0 
3.21146 -1.64005 0 4.48142 -0.195611 0 6.09342 1.13856 0 
8.04054 2.06416 0 10.1741 2.29896 0 12.1848 1.70537 0 
13.7087 0.406933 0 14.5177 -1.21824 0 14.6614 -2.70573 0 
14.4448 -3.73772 0 14.2425 -4.28436 0 14.2614 -4.56946 0 
14.3668 -4.90524 0 14.0404 -5.48069 0 12.5589 -6.13377 0 
9.52394 -6.19564 0 5.49462 -4.7498 0 1.76948 -1.44863 0 
-1.23867 3.03152 0 -5.67924 7.5106 0 -14.6099 10.6837 0 
-26.1422 11.3113 0 -33.4729 9.61466 0 -33.571 7.21494 0 
-31.9808 5.19217 0 11.8903 -0.824493 0 10.556 -1.95511 0 
7.0653 -3.68736 0 2.61042 -5.67976 0 -1.47249 -7.47845 0 
-4.33118 -8.76961 0 -5.88326 -9.46533 0 -6.38935 -9.63805 0 
-6.11085 -9.423 0 -5.28443 -8.95346 0 -4.17927 -8.33553 0 
-3.07421 -7.64933 0 -2.16985 -6.95952 0 -1.5264 -6.32089 0 
-1.08699 -5.77548 0 -0.759119 -5.34785 0 -0.480616 -5.04401 0 
-0.231016 -4.85243 0 -0.00476837 -4.74437 0 0.22012 -4.67263 0 
0.496769 -4.57147 0 0.89981 -4.36234 0 1.49486 -3.96919 0 
2.30483 -3.34225 0 3.30163 -2.48201 0 4.4361 -1.45336 0 
5.6801 -0.385284 0 7.03571 0.542587 0 8.49589 1.1294 0 
9.98996 1.20587 0 11.3684 0.704867 0 12.4553 -0.287062 0 
13.1411 -1.54555 0 13.4512 -2.80341 0 13.5333 -3.87553 0 
13.5637 -4.73689 0 13.6206 -5.50863 0 13.5904 -6.36191 0 
13.1597 -7.37605 0 11.9523 -8.39295 0 9.82689 -8.9715 0 
7.13654 -8.63254 0 4.49024 -7.36878 0 1.71349 -5.85734 0 
-3.34028 -4.9109 0 -13.3037 -4.51766 0 -25.8153 -3.69378 0 
-33.7679 -2.13599 0 -34.1009 -0.653696 0 -32.5462 0.286192 0 
10.0476 -6.99261 0 8.61958 -9.23916 0 5.17882 -11.4265 0 
1.1781 -13.0149 0 -2.26348 -13.7257 0 -4.53253 -13.6594 0 
-5.65484 -13.0949 0 -5.88884 -12.2827 0 -5.45359 -11.3792 0 
-4.5433 -10.4622 0 -3.39857 -9.56115 0 -2.28644 -8.68255 0 
-1.40783 -7.83027 0 -0.825763 -7.01845 0 -0.480258 -6.27281 0 
-0.267398 -5.6214 0 -0.107658 -5.08201 0 0.0391245 -4.65363 0 
0.198001 -4.3143 0 0.408196 -4.02387 0 0.734133 -3.73027 0 
1.25031 -3.37958 0 2.00539 -2.92912 0 2.9875 -2.36086 0 
4.12145 -1.69041 0 5.30819 -0.969911 0 6.47737 -0.285435 0 
7.6081 0.251353 0 8.70383 0.5216 0 9.74959 0.431025 0 
10.6919 -0.0524282 0 11.4583 -0.875276 0 12.0013 -1.91151 0 
12.3314 -3.01406 0 12.5113 -4.07983 0 12.6094 -5.09082 0 
12.6364 -6.10712 0 12.4994 -7.2126 0 12.0093 -8.4341 0 
10.9635 -9.67275 0 9.28435 -10.7191 0 7.09734 -11.4269 0 
4.54469 -11.9749 0 1.21921 -12.9017 0 -4.33956 -14.5437 0 
-13.3928 -15.923 0 -23.7605 -14.8811 0 -30.4328 -11.1702 0 
-31.1488 -6.97353 0 -30.101 -3.79807 0 7.39726 -10.7872 0 
6.12212 -13.4597 0 3.28959 -15.7301 0 0.311136 -17.0306 0 
-2.11704 -17.1736 0 -3.70032 -16.4166 0 -4.50651 -15.1833 0 
-4.67362 -13.8084 0 -4.29034 -12.4735 0 -3.46643 -11.2486 0 
-2.39965 -10.1405 0 -1.34333 -9.12418 0 -0.505751 -8.167 0 
0.031054 -7.24955 0 0.310057 -6.37667 0 0.431687 -5.57072 0 
0.487161 -4.85394 0 0.536686 -4.23312 0 0.624985 -3.69478 0 
0.80415 -3.20995 0 1.14106 -2.7445 0 1.70096 -2.27113 0 
2.51359 -1.77906 0 3.54355 -1.27721 0 4.69257 -0.790399 0 
5.84107 -0.35376 0 6.90136 -0.01086 0 7.84274 0.185716 0 
8.67556 0.17944 0 9.41594 -0.0749052 0 10.0621 -0.591224 0 
10.5962 -1.33984 0 11.0023 -2.25442 0 11.2829 -3.25819 0 
11.4566 -4.29665 0 11.5364 -5.35858 0 11.4989 -6.47241 0 
11.2635 -7.67817 0 10.6996 -8.98812 0 9.66731 -10.3618 0 
8.0727 -11.7315 0 5.88075 -13.0925 0 3.01548 -14.5984 0 
-0.855243 -16.4886 0 -6.36162 -18.645 0 -13.6412 -19.9245 0 
-21.0624 -18.609 0 -25.8603 -14.6472 0 -26.7288 -9.94045 0 
-26.1953 -6.05504 0 4.70252 -12.103 0 3.67667 -14.5482 0 
1.60795 -16.4983 0 -0.265473 -17.5218 0 -1.64949 -17.5061 0 
-2.54222 -16.6795 0 -3.04668 -15.3989 0 -3.179 -13.9568 0 
-2.89375 -12.5293 0 -2.21028 -11.2028 0 -1.27419 -10.0046 0 
-0.312978 -8.92189 0 0.466806 -7.91935 0 0.96457 -6.96377 0 
1.19857 -6.04331 0 1.25533 -5.16887 0 1.22994 -4.35911 0 
1.19829 -3.62397 0 1.22117 -2.95817 0 1.35848 -2.34567 0 
1.67295 -1.77064 0 2.21575 -1.22873 0 2.99931 -0.732762 0 
3.97615 -0.308746 0 5.0449 0.0155032 0 6.08773 0.220144 0 
7.01684 0.293529 0 7.7984 0.225079 0 8.44321 0.0005126 0 
8.97892 -0.39407 0 9.42693 -0.961888 0 9.79508 -1.68765 0 
10.083 -2.5392 0 10.2892 -3.47929 0 10.4109 -4.48115 0 
10.4337 -5.5387 0 10.3168 -6.66498 0 9.98366 -7.8791 0 
9.32566 -9.18905 0 8.22008 -10.5837 0 6.55366 -12.0458 0 
4.2304 -13.5824 0 1.14857 -15.2312 0 -2.82737 -16.971 0 
-7.77543 -18.4812 0 -13.3567 -18.9371 0 -18.4832 -17.45 0 
-21.7643 -14.1258 0 -22.5567 -10.1398 0 -22.3302 -6.61605 0 
2.50701 -11.5823 0 1.72688 -13.4387 0 0.315928 -14.8549 0 
-0.696707 -15.5995 0 -1.27471 -15.6365 0 -1.5931 -15.0956 0 
-1.78384 -14.1616 0 -1.80405 -13.0001 0 -1.53629 -11.7424 0 
-0.9417 -10.4882 0 -0.118762 -9.30327 0 0.741923 -8.21289 0 
1.45236 -7.20663 0 1.90709 -6.25815 0 2.10496 -5.34881 0 
2.11589 -4.47772 0 2.03206 -3.65474 0 1.93763 -2.88821 0 
1.90329 -2.1784 0 1.99168 -1.52055 0 2.258 -0.913769 0 
2.73884 -0.369471 0 3.43357 0.0864863 0 4.29181 0.421482 0 
5.22146 0.609624 0 6.1191 0.642025 0 6.90629 0.525862 0 
7.54973 0.274581 0 8.05641 -0.101721 0 8.45354 -0.598419 0 
8.76856 -1.21194 0 9.01889 -1.93415 0 9.21067 -2.75087 0 
9.34092 -3.64566 0 9.39716 -4.60612 0 9.35256 -5.62832 0 
9.15846 -6.71608 0 8.73939 -7.87503 0 7.99501 -9.10553 0 
6.81051 -10.3987 0 5.07395 -11.7383 0 2.69536 -13.1008 0 
-0.373161 -14.4369 0 -4.10521 -15.6134 0 -8.3277 -16.3297 0 
-12.6099 -16.1225 0 -16.2511 -14.6392 0 -18.5501 -12.0431 0 
-19.2191 -8.99813 0 -19.1478 -6.19155 0 0.989854 -10.1247 0 
0.404125 -11.3548 0 -0.552917 -12.2601 0 -1.04706 -12.7758 0 
-1.14553 -12.9231 0 -1.06734 -12.7418 0 -0.951231 -12.2536 0 
-0.759774 -11.4876 0 -0.381821 -10.5091 0 0.228816 -9.41364 0 
1.00112 -8.29803 0 1.78366 -7.23003 0 2.42155 -6.23586 0 
2.82239 -5.31021 0 2.97901 -4.43825 0 2.9494 -3.61153 0 
2.81944 -2.83027 0 2.67463 -2.09765 0 2.58884 -1.41548 0 
2.62311 -0.78578 0 2.82403 -0.216633 0 3.21601 0.272834 0 
3.79027 0.653154 0 4.49929 0.892806 0 5.26544 0.970644 0 
6.00397 0.884336 0 6.6494 0.649089 0 7.17082 0.288135 0 
7.57021 -0.177634 0 7.8687 -0.734603 0 8.09121 -1.37529 0 
8.25616 -2.09442 0 8.37147 -2.88617 0 8.43396 -3.74365 0 
8.42825 -4.66038 0 8.32369 -5.63101 0 8.07005 -6.6507 0 
7.59422 -7.7121 0 6.80197 -8.80259 0 5.58733 -9.90223 0 
3.85153 -10.9824 0 1.53176 -12 0 -1.36396 -12.8817 0 
-4.72019 -13.4978 0 -8.28459 -13.6487 0 -11.6662 -13.111 0 
-14.4037 -11.7773 0 -16.1231 -9.79782 0 -16.7052 -7.54935 0 
-16.717 -5.4311 0 0.0467777 -8.45265 0 -0.408483 -9.21291 0 
-1.10506 -9.76927 0 -1.35972 -10.1486 0 -1.24072 -10.3932 0 
-0.923651 -10.4868 0 -0.529659 -10.3522 0 -0.0594974 -9.9229 0 
0.537694 -9.20228 0 1.26934 -8.26608 0 2.06485 -7.22536 0 
2.8041 -6.18086 0 3.37218 -5.19434 0 3.7047 -4.2865 0 
3.80364 -3.45339 0 3.72387 -2.68461 0 3.54593 -1.97268 0 
3.35242 -1.31403 0 3.21516 -0.708067 0 3.19053 -0.158167 0 
3.31661 0.325143 0 3.60863 0.722092 0 4.05354 1.006 0 
4.6093 1.15079 0 5.21299 1.14077 0 5.79754 0.976926 0 
6.31009 0.675607 0 6.723 0.260794 0 7.03367 -0.244766 0 
7.25588 -0.825113 0 7.40874 -1.47144 0 7.50801 -2.17971 0 
7.56144 -2.94735 0 7.56671 -3.771 0 7.50981 -4.64493 0 
7.36225 -5.55975 0 7.07736 -6.5008 0 6.58749 -7.44652 0 
5.80488 -8.36796 0 4.63071 -9.23067 0 2.97613 -9.99748 0 
0.79608 -10.629 0 -1.87088 -11.0765 0 -4.8722 -11.2688 0 
-7.94097 -11.1065 0 -10.7385 -10.4923 0 -12.9378 -9.39851 0 
-14.3222 -7.92651 0 -14.8524 -6.28875 0 -14.9113 -4.71755 0 
-0.53066 -6.94144 0 -0.912499 -7.42263 0 -1.48857 -7.79906 0 
-1.67102 -8.12566 0 -1.48374 -8.43868 0 -1.02626 -8.69357 0 
-0.387359 -8.77311 0 0.3901 -8.56226 0 1.275 -8.01967 0 
2.20573 -7.197 0 3.08634 -6.20753 0 3.81468 -5.17345 0 
4.31591 -4.18469 0 4.56334 -3.28562 0 4.5809 -2.4852 0 
4.43011 -1.77494 0 4.19002 -1.14233 0 3.93924 -0.577152 0 
3.7447 -0.0736594 0 3.65632 0.367928 0 3.70429 0.739843 0 
3.89687 1.02651 0 4.21896 1.20749 0 4.63406 1.26369 0 
5.09158 1.18442 0 5.5388 0.971884 0 5.93327 0.640118 0 
6.25045 0.209314 0 6.4843 -0.300938 0 6.64203 -0.876403 0 
6.73661 -1.50937 0 6.78024 -2.19702 0 6.78018 -2.93833 0 
6.73639 -3.73092 0 6.63949 -4.56783 0 6.46782 -5.43462 0 
6.18329 -6.30653 0 5.72706 -7.14706 0 5.01782 -7.90956 0 
3.95781 -8.544 0 2.45323 -9.0091 0 0.452685 -9.28521 0 
-2.00378 -9.37587 0 -4.75018 -9.28817 0 -7.5081 -9.00286 0 
-9.95821 -8.47104 0 -11.8379 -7.65857 0 -13.0134 -6.60074 0 
-13.4962 -5.41012 0 -13.5746 -4.23037 0 -0.915599 -5.67937 0 
-1.2661 -6.01324 0 -1.80809 -6.31093 0 -1.99934 -6.62389 0 
-1.80863 -6.97295 0 -1.25809 -7.3026 0 -0.39835 -7.4872 0 
0.693947 -7.39316 0 1.90296 -6.95214 0 3.08148 -6.19606 0 
4.0884 -5.23606 0 4.82694 -4.20727 0 5.26001 -3.21857 0 
5.40418 -2.33154 0 5.31431 -1.56589 0 5.06675 -0.916308 0 
4.74373 -0.367624 0 4.42109 0.0959218 0 4.16024 0.486112 0 
4.00403 0.808406 0 3.97519 1.06081 0 4.07628 1.23438 0 
4.29072 1.31603 0 4.58623 1.29341 0 4.92119 1.15998 0 
5.25324 0.918055 0 5.54752 0.578099 0 5.78195 0.154972 0 
5.94795 -0.337017 0 6.04745 -0.887686 0 6.08813 -1.49226 0 
6.07905 -2.15014 0 6.02754 -2.8622 0 5.93721 -3.62719 0 
5.80611 -4.43765 0 5.62354 -5.27557 0 5.36492 -6.10827 0 
4.98446 -6.88608 0 4.40794 -7.54476 0 3.53117 -8.01692 0 
2.23492 -8.25512 0 0.429308 -8.26175 0 -1.87384 -8.1022 0 
-4.4992 -7.8686 0 -7.12384 -7.59947 0 -9.39425 -7.2371 0 
-11.0676 -6.68846 0 -12.0737 -5.92362 0 -12.482 -5.00646 0 
-12.5518 -4.05067 0 -1.19841 -4.61283 0 -1.54406 -4.85515 0 
-2.09922 -5.10027 0 -2.33305 -5.38808 0 -2.16245 -5.72749 0 
-1.54051 -6.06293 0 -0.477922 -6.27539 0 0.925159 -6.22954 0 
2.4721 -5.84348 0 3.92181 -5.13509 0 5.07513 -4.21069 0 
5.83217 -3.20965 0 6.19164 -2.24934 0 6.21603 -1.40002 0 
5.99613 -0.688076 0 5.62837 -0.111282 0 5.20225 0.346172 0 
4.79297 0.703573 0 4.45719 0.977886 0 4.23102 1.18056 0 
4.13026 1.31613 0 4.15208 1.38268 0 4.27799 1.3741 0 
4.47801 1.28375 0 4.71622 1.10829 0 4.95692 0.8497 0 
5.17018 0.515014 0 5.33533 0.113791 0 5.44164 -0.34532 0 
5.48679 -0.857192 0 5.47416 -1.42124 0 5.4103 -2.04054 0 
5.30313 -2.71935 0 5.16094 -3.45955 0 4.99111 -4.25616 0 
4.7972 -5.09208 0 4.57278 -5.93265 0 4.29058 -6.72179 0 
3.88697 -7.38348 0 3.24744 -7.83501 0 2.2084 -8.01864 0 